Generated from peachgk.ini

4184 atoms

3 atom types

0 38.595 xlo xhi
0 38.583 ylo yhi
0 130.8 zlo zhi

Masses

1 195.080 # PT
2 39.950 # A1
3 39.950 # A2

Atoms # atomic

1 1 1.385 0.7996301084756852 15.0 # PT
2 1 4.155000000000001 0.7996301084756852 15.0 # PT
3 1 2.77 3.198520433902741 15.0 # PT
4 1 5.54 3.198520433902741 15.0 # PT
5 1 1.385 5.5974107593297955 15.0 # PT
6 1 4.155000000000001 5.5974107593297955 15.0 # PT
7 1 2.77 7.99630108475685 15.0 # PT
8 1 5.54 7.99630108475685 15.0 # PT
9 1 6.925 0.7996301084756852 15.0 # PT
10 1 9.695 0.7996301084756852 15.0 # PT
11 1 8.31 3.198520433902741 15.0 # PT
12 1 11.08 3.198520433902741 15.0 # PT
13 1 6.925 5.5974107593297955 15.0 # PT
14 1 9.695 5.5974107593297955 15.0 # PT
15 1 8.31 7.99630108475685 15.0 # PT
16 1 11.08 7.99630108475685 15.0 # PT
17 1 12.465 0.7996301084756852 15.0 # PT
18 1 15.235 0.7996301084756852 15.0 # PT
19 1 13.85 3.198520433902741 15.0 # PT
20 1 16.62 3.198520433902741 15.0 # PT
21 1 12.465 5.5974107593297955 15.0 # PT
22 1 15.235 5.5974107593297955 15.0 # PT
23 1 13.85 7.99630108475685 15.0 # PT
24 1 16.62 7.99630108475685 15.0 # PT
25 1 18.005 0.7996301084756852 15.0 # PT
26 1 20.775 0.7996301084756852 15.0 # PT
27 1 19.39 3.198520433902741 15.0 # PT
28 1 22.16000000000001 3.198520433902741 15.0 # PT
29 1 18.005 5.5974107593297955 15.0 # PT
30 1 20.775 5.5974107593297955 15.0 # PT
31 1 19.39 7.99630108475685 15.0 # PT
32 1 22.16000000000001 7.99630108475685 15.0 # PT
33 1 23.545 0.7996301084756852 15.0 # PT
34 1 26.314999999999998 0.7996301084756852 15.0 # PT
35 1 24.93 3.198520433902741 15.0 # PT
36 1 27.70000000000001 3.198520433902741 15.0 # PT
37 1 23.545 5.5974107593297955 15.0 # PT
38 1 26.314999999999998 5.5974107593297955 15.0 # PT
39 1 24.93 7.99630108475685 15.0 # PT
40 1 27.70000000000001 7.99630108475685 15.0 # PT
41 1 29.085 0.7996301084756852 15.0 # PT
42 1 31.854999999999997 0.7996301084756852 15.0 # PT
43 1 30.47 3.198520433902741 15.0 # PT
44 1 33.24000000000001 3.198520433902741 15.0 # PT
45 1 29.085 5.5974107593297955 15.0 # PT
46 1 31.854999999999997 5.5974107593297955 15.0 # PT
47 1 30.47 7.99630108475685 15.0 # PT
48 1 33.24000000000001 7.99630108475685 15.0 # PT
49 1 34.625 0.7996301084756852 15.0 # PT
50 1 37.395 0.7996301084756852 15.0 # PT
51 1 36.01 3.198520433902741 15.0 # PT
52 1 0.1850000000000023 3.198520433902741 15.0 # PT
53 1 34.625 5.5974107593297955 15.0 # PT
54 1 37.395 5.5974107593297955 15.0 # PT
55 1 36.01 7.99630108475685 15.0 # PT
56 1 0.1850000000000023 7.99630108475685 15.0 # PT
57 1 1.385 10.39519141018391 15.0 # PT
58 1 4.155000000000001 10.39519141018391 15.0 # PT
59 1 2.77 12.794081735610959 15.0 # PT
60 1 5.54 12.794081735610959 15.0 # PT
61 1 1.385 15.19297206103802 15.0 # PT
62 1 4.155000000000001 15.19297206103802 15.0 # PT
63 1 2.77 17.591862386465067 15.0 # PT
64 1 5.54 17.591862386465067 15.0 # PT
65 1 6.925 10.39519141018391 15.0 # PT
66 1 9.695 10.39519141018391 15.0 # PT
67 1 8.31 12.794081735610959 15.0 # PT
68 1 11.08 12.794081735610959 15.0 # PT
69 1 6.925 15.19297206103802 15.0 # PT
70 1 9.695 15.19297206103802 15.0 # PT
71 1 8.31 17.591862386465067 15.0 # PT
72 1 11.08 17.591862386465067 15.0 # PT
73 1 12.465 10.39519141018391 15.0 # PT
74 1 15.235 10.39519141018391 15.0 # PT
75 1 13.85 12.794081735610959 15.0 # PT
76 1 16.62 12.794081735610959 15.0 # PT
77 1 12.465 15.19297206103802 15.0 # PT
78 1 15.235 15.19297206103802 15.0 # PT
79 1 13.85 17.591862386465067 15.0 # PT
80 1 16.62 17.591862386465067 15.0 # PT
81 1 18.005 10.39519141018391 15.0 # PT
82 1 20.775 10.39519141018391 15.0 # PT
83 1 19.39 12.794081735610959 15.0 # PT
84 1 22.16000000000001 12.794081735610959 15.0 # PT
85 1 18.005 15.19297206103802 15.0 # PT
86 1 20.775 15.19297206103802 15.0 # PT
87 1 19.39 17.591862386465067 15.0 # PT
88 1 22.16000000000001 17.591862386465067 15.0 # PT
89 1 23.545 10.39519141018391 15.0 # PT
90 1 26.314999999999998 10.39519141018391 15.0 # PT
91 1 24.93 12.794081735610959 15.0 # PT
92 1 27.70000000000001 12.794081735610959 15.0 # PT
93 1 23.545 15.19297206103802 15.0 # PT
94 1 26.314999999999998 15.19297206103802 15.0 # PT
95 1 24.93 17.591862386465067 15.0 # PT
96 1 27.70000000000001 17.591862386465067 15.0 # PT
97 1 29.085 10.39519141018391 15.0 # PT
98 1 31.854999999999997 10.39519141018391 15.0 # PT
99 1 30.47 12.794081735610959 15.0 # PT
100 1 33.24000000000001 12.794081735610959 15.0 # PT
101 1 29.085 15.19297206103802 15.0 # PT
102 1 31.854999999999997 15.19297206103802 15.0 # PT
103 1 30.47 17.591862386465067 15.0 # PT
104 1 33.24000000000001 17.591862386465067 15.0 # PT
105 1 34.625 10.39519141018391 15.0 # PT
106 1 37.395 10.39519141018391 15.0 # PT
107 1 36.01 12.794081735610959 15.0 # PT
108 1 0.1850000000000023 12.794081735610959 15.0 # PT
109 1 34.625 15.19297206103802 15.0 # PT
110 1 37.395 15.19297206103802 15.0 # PT
111 1 36.01 17.591862386465067 15.0 # PT
112 1 0.1850000000000023 17.591862386465067 15.0 # PT
113 1 1.385 19.99075271189213 15.0 # PT
114 1 4.155000000000001 19.99075271189213 15.0 # PT
115 1 2.77 22.38964303731918 15.0 # PT
116 1 5.54 22.38964303731918 15.0 # PT
117 1 1.385 24.78853336274624 15.0 # PT
118 1 4.155000000000001 24.78853336274624 15.0 # PT
119 1 2.77 27.18742368817329 15.0 # PT
120 1 5.54 27.18742368817329 15.0 # PT
121 1 6.925 19.99075271189213 15.0 # PT
122 1 9.695 19.99075271189213 15.0 # PT
123 1 8.31 22.38964303731918 15.0 # PT
124 1 11.08 22.38964303731918 15.0 # PT
125 1 6.925 24.78853336274624 15.0 # PT
126 1 9.695 24.78853336274624 15.0 # PT
127 1 8.31 27.18742368817329 15.0 # PT
128 1 11.08 27.18742368817329 15.0 # PT
129 1 12.465 19.99075271189213 15.0 # PT
130 1 15.235 19.99075271189213 15.0 # PT
131 1 13.85 22.38964303731918 15.0 # PT
132 1 16.62 22.38964303731918 15.0 # PT
133 1 12.465 24.78853336274624 15.0 # PT
134 1 15.235 24.78853336274624 15.0 # PT
135 1 13.85 27.18742368817329 15.0 # PT
136 1 16.62 27.18742368817329 15.0 # PT
137 1 18.005 19.99075271189213 15.0 # PT
138 1 20.775 19.99075271189213 15.0 # PT
139 1 19.39 22.38964303731918 15.0 # PT
140 1 22.16000000000001 22.38964303731918 15.0 # PT
141 1 18.005 24.78853336274624 15.0 # PT
142 1 20.775 24.78853336274624 15.0 # PT
143 1 19.39 27.18742368817329 15.0 # PT
144 1 22.16000000000001 27.18742368817329 15.0 # PT
145 1 23.545 19.99075271189213 15.0 # PT
146 1 26.314999999999998 19.99075271189213 15.0 # PT
147 1 24.93 22.38964303731918 15.0 # PT
148 1 27.70000000000001 22.38964303731918 15.0 # PT
149 1 23.545 24.78853336274624 15.0 # PT
150 1 26.314999999999998 24.78853336274624 15.0 # PT
151 1 24.93 27.18742368817329 15.0 # PT
152 1 27.70000000000001 27.18742368817329 15.0 # PT
153 1 29.085 19.99075271189213 15.0 # PT
154 1 31.854999999999997 19.99075271189213 15.0 # PT
155 1 30.47 22.38964303731918 15.0 # PT
156 1 33.24000000000001 22.38964303731918 15.0 # PT
157 1 29.085 24.78853336274624 15.0 # PT
158 1 31.854999999999997 24.78853336274624 15.0 # PT
159 1 30.47 27.18742368817329 15.0 # PT
160 1 33.24000000000001 27.18742368817329 15.0 # PT
161 1 34.625 19.99075271189213 15.0 # PT
162 1 37.395 19.99075271189213 15.0 # PT
163 1 36.01 22.38964303731918 15.0 # PT
164 1 0.1850000000000023 22.38964303731918 15.0 # PT
165 1 34.625 24.78853336274624 15.0 # PT
166 1 37.395 24.78853336274624 15.0 # PT
167 1 36.01 27.18742368817329 15.0 # PT
168 1 0.1850000000000023 27.18742368817329 15.0 # PT
169 1 1.385 29.586314013600347 15.0 # PT
170 1 4.155000000000001 29.586314013600347 15.0 # PT
171 1 2.77 31.9852043390274 15.0 # PT
172 1 5.54 31.9852043390274 15.0 # PT
173 1 1.385 34.38409466445445 15.0 # PT
174 1 4.155000000000001 34.38409466445445 15.0 # PT
175 1 2.77 36.782984989881506 15.0 # PT
176 1 5.54 36.782984989881506 15.0 # PT
177 1 6.925 29.586314013600347 15.0 # PT
178 1 9.695 29.586314013600347 15.0 # PT
179 1 8.31 31.9852043390274 15.0 # PT
180 1 11.08 31.9852043390274 15.0 # PT
181 1 6.925 34.38409466445445 15.0 # PT
182 1 9.695 34.38409466445445 15.0 # PT
183 1 8.31 36.782984989881506 15.0 # PT
184 1 11.08 36.782984989881506 15.0 # PT
185 1 12.465 29.586314013600347 15.0 # PT
186 1 15.235 29.586314013600347 15.0 # PT
187 1 13.85 31.9852043390274 15.0 # PT
188 1 16.62 31.9852043390274 15.0 # PT
189 1 12.465 34.38409466445445 15.0 # PT
190 1 15.235 34.38409466445445 15.0 # PT
191 1 13.85 36.782984989881506 15.0 # PT
192 1 16.62 36.782984989881506 15.0 # PT
193 1 18.005 29.586314013600347 15.0 # PT
194 1 20.775 29.586314013600347 15.0 # PT
195 1 19.39 31.9852043390274 15.0 # PT
196 1 22.16000000000001 31.9852043390274 15.0 # PT
197 1 18.005 34.38409466445445 15.0 # PT
198 1 20.775 34.38409466445445 15.0 # PT
199 1 19.39 36.782984989881506 15.0 # PT
200 1 22.16000000000001 36.782984989881506 15.0 # PT
201 1 23.545 29.586314013600347 15.0 # PT
202 1 26.314999999999998 29.586314013600347 15.0 # PT
203 1 24.93 31.9852043390274 15.0 # PT
204 1 27.70000000000001 31.9852043390274 15.0 # PT
205 1 23.545 34.38409466445445 15.0 # PT
206 1 26.314999999999998 34.38409466445445 15.0 # PT
207 1 24.93 36.782984989881506 15.0 # PT
208 1 27.70000000000001 36.782984989881506 15.0 # PT
209 1 29.085 29.586314013600347 15.0 # PT
210 1 31.854999999999997 29.586314013600347 15.0 # PT
211 1 30.47 31.9852043390274 15.0 # PT
212 1 33.24000000000001 31.9852043390274 15.0 # PT
213 1 29.085 34.38409466445445 15.0 # PT
214 1 31.854999999999997 34.38409466445445 15.0 # PT
215 1 30.47 36.782984989881506 15.0 # PT
216 1 33.24000000000001 36.782984989881506 15.0 # PT
217 1 34.625 29.586314013600347 15.0 # PT
218 1 37.395 29.586314013600347 15.0 # PT
219 1 36.01 31.9852043390274 15.0 # PT
220 1 0.1850000000000023 31.9852043390274 15.0 # PT
221 1 34.625 34.38409466445445 15.0 # PT
222 1 37.395 34.38409466445445 15.0 # PT
223 1 36.01 36.782984989881506 15.0 # PT
224 1 0.1850000000000023 36.782984989881506 15.0 # PT
225 1 0.003143993972108162 1.597655055134617 17.26208378449017 # PT
226 1 2.7698513496280035 1.5981272422485011 17.26202350052263 # PT
227 1 1.3872745221628409 3.9984274657132928 17.262702131578028 # PT
228 1 4.15496480617845 3.9981828801495345 17.26202210220614 # PT
229 1 0.0033412517817301268 6.397070670908248 17.26202676199569 # PT
230 1 2.769846189343315 6.397070584508987 17.26196702880825 # PT
231 1 1.3872749115244138 8.796171669420271 17.26270150333938 # PT
232 1 4.154964688579342 8.795926808134135 17.262021466624578 # PT
233 1 5.539994800258452 1.5980962222956718 17.26208831421089 # PT
234 1 8.309999940760987 1.5980957233623199 17.2620890454903 # PT
235 1 6.9249993034583355 3.9981871366247455 17.26203534055718 # PT
236 1 9.694999994606635 3.998187151178133 17.26203541222519 # PT
237 1 5.539994560889536 6.397042234172531 17.26203402276268 # PT
238 1 8.30999993830306 6.397041860684705 17.262034788383037 # PT
239 1 6.924999300298121 8.795931187129364 17.26203471325765 # PT
240 1 9.694999994447311 8.795931203836666 17.26203478529066 # PT
241 1 11.07999999971811 1.598095720258962 17.26208905058203 # PT
242 1 13.85000000000498 1.5980957202290869 17.26208905062001 # PT
243 1 12.46500000002874 3.998187151160014 17.26203541284195 # PT
244 1 15.23500000000071 3.998187151160001 17.262035412850217 # PT
245 1 11.07999999971991 6.397041858526408 17.26203479370241 # PT
246 1 13.85000000000532 6.397041858497391 17.26203479374504 # PT
247 1 12.465000000029068 8.795931203902649 17.26203478585544 # PT
248 1 15.23500000000071 8.795931203902276 17.26203478586388 # PT
249 1 16.62 1.5980957202292079 17.26208905062117 # PT
250 1 19.39 1.598095720229213 17.2620890506212 # PT
251 1 18.005 3.998187151160023 17.26203541285036 # PT
252 1 20.775 3.9981871511600247 17.26203541285036 # PT
253 1 16.62 6.397041858497453 17.262034793746388 # PT
254 1 19.39 6.397041858497453 17.26203479374644 # PT
255 1 18.005 8.795931203902276 17.26203478586396 # PT
256 1 20.775 8.795931203902276 17.262034785863978 # PT
257 1 22.16 1.598095720229213 17.26208905062117 # PT
258 1 24.929999999993136 1.598095720228972 17.26208905061928 # PT
259 1 23.544999999998456 3.998187151160001 17.2620354128502 # PT
260 1 26.314999999976997 3.998187151160731 17.26203541283705 # PT
261 1 22.16 6.397041858497453 17.26203479374644 # PT
262 1 24.92999999999254 6.397041858497391 17.262034793744398 # PT
263 1 23.544999999998442 8.795931203902258 17.26203478586386 # PT
264 1 26.31499999997656 8.795931203903502 17.26203478585066 # PT
265 1 27.70000000122934 1.598095720237803 17.26208905059985 # PT
266 1 30.47000018515418 1.5980957203613317 17.26208906436207 # PT
267 1 29.08500001568093 3.99818715157256 17.26203541379696 # PT
268 1 31.85500175302098 3.998187197876718 17.26203561810748 # PT
269 1 27.70000000122597 6.397041858499375 17.26203479372255 # PT
270 1 30.470000186623746 6.3970418568820335 17.26203480747132 # PT
271 1 29.085000015815098 8.795931204222855 17.262034786808048 # PT
272 1 31.85500175483884 8.795931249360624 17.26203499121703 # PT
273 1 33.24000706923335 1.598095490679758 17.262090833439768 # PT
274 1 36.00801368387264 1.5980657955200588 17.262156827210667 # PT
275 1 34.62507175231403 3.998190119347257 17.262049109167467 # PT
276 1 37.392036719795634 3.9979472594770775 17.26139373226697 # PT
277 1 33.24000724527628 6.397041478866398 17.26203657475213 # PT
278 1 36.00802211885275 6.397010697395834 17.26210278590462 # PT
279 1 34.62507183095882 8.795934108901788 17.26204848344483 # PT
280 1 37.392035518374634 8.795693857499211 17.26139314603443 # PT
281 1 0.0033412275794969686 11.19485020127125 17.26202675497711 # PT
282 1 2.769846179547849 11.19485022427542 17.26196702026862 # PT
283 1 1.3872749113530598 13.59395230879554 17.26270150268156 # PT
284 1 4.1549646885093 13.5937074481779 17.26202146598302 # PT
285 1 0.003341227571009266 15.99263085223477 17.262026754952878 # PT
286 1 2.769846179548173 15.992630875253758 17.26196702024557 # PT
287 1 1.38727491135311 18.39173295965498 17.262701502680898 # PT
288 1 4.154964688509322 18.391488099036938 17.26202146598262 # PT
289 1 5.539994559690681 11.19482189280328 17.26203401429135 # PT
290 1 8.309999938167213 11.19482152061717 17.26203477988453 # PT
291 1 6.924999300297442 13.59371182730774 17.26203471262513 # PT
292 1 9.69499999444741 13.59371184401613 17.26203478465887 # PT
293 1 5.539994559690805 15.9926025437813 17.26203401426877 # PT
294 1 8.309999938167248 15.992602171594909 17.26203477986203 # PT
295 1 6.924999300297446 18.3914924781668 17.26203471262452 # PT
296 1 9.694999994447402 18.391492494875187 17.26203478465835 # PT
297 1 11.07999999972011 11.19482151856527 17.26203478521019 # PT
298 1 13.850000000005329 11.194821518536159 17.262034785253 # PT
299 1 12.465000000029068 13.59371184408222 17.26203478522378 # PT
300 1 15.23500000000071 13.59371184408186 17.2620347852322 # PT
301 1 11.07999999972011 15.99260216954292 17.26203478518776 # PT
302 1 13.850000000005329 15.9926021695137 17.2620347852306 # PT
303 1 12.465000000029068 18.39149249494092 17.26203478522325 # PT
304 1 15.2350000000007 18.39149249494076 17.26203478523165 # PT
305 1 16.62 11.1948215185362 17.26203478525428 # PT
306 1 19.39 11.19482151853618 17.26203478525428 # PT
307 1 18.005 13.59371184408186 17.262034785232398 # PT
308 1 20.775 13.59371184408186 17.26203478523242 # PT
309 1 16.62 15.9926021695137 17.26203478523178 # PT
310 1 19.39 15.9926021695137 17.262034785231798 # PT
311 1 18.005 18.39149249494076 17.26203478523178 # PT
312 1 20.775 18.39149249494076 17.26203478523178 # PT
313 1 22.16 11.19482151853618 17.26203478525428 # PT
314 1 24.92999999999254 11.194821518536159 17.26203478525229 # PT
315 1 23.544999999998442 13.593711844081849 17.262034785232128 # PT
316 1 26.31499999997654 13.59371184408309 17.262034785218898 # PT
317 1 22.16 15.9926021695137 17.262034785231798 # PT
318 1 24.92999999999254 15.9926021695137 17.262034785229908 # PT
319 1 23.544999999998442 18.39149249494076 17.26203478523163 # PT
320 1 26.31499999997654 18.39149249494211 17.26203478521838 # PT
321 1 27.70000000122613 11.19482151853812 17.262034785230338 # PT
322 1 30.47000018675266 11.194821516825808 17.26203479897763 # PT
323 1 29.085000015815208 13.593711844402108 17.26203478617628 # PT
324 1 31.85500175484082 13.593711889537769 17.26203499058456 # PT
325 1 27.70000000122613 15.99260216951576 17.26203478520797 # PT
326 1 30.470000186752618 15.99260216780348 17.26203479895511 # PT
327 1 29.085000015815208 18.39149249526119 17.26203478617595 # PT
328 1 31.85500175484082 18.39149254039682 17.26203499058412 # PT
329 1 33.24000724629555 11.19482113793932 17.26203656632627 # PT
330 1 36.00802212534502 11.19479034328454 17.262102777463088 # PT
331 1 34.62507183103069 13.59371474893009 17.26204848280428 # PT
332 1 37.392035519249454 13.593474495184529 17.26139314537064 # PT
333 1 33.240007246295406 15.99260178891697 17.262036566303728 # PT
334 1 36.00802212534533 15.992570994261339 17.26210277743937 # PT
335 1 34.62507183103069 18.39149539978924 17.26204848280367 # PT
336 1 37.39203551924942 18.39125514604413 17.26139314537018 # PT
337 1 0.003341227571012672 20.790411503088936 17.262026754952878 # PT
338 1 2.769846179548173 20.79041152610798 17.26196702024557 # PT
339 1 1.3872749113530929 23.189513610510048 17.26270150268097 # PT
340 1 4.154964688509314 23.189268749892037 17.26202146598268 # PT
341 1 0.0033412275715335718 25.58819215398448 17.26202675496239 # PT
342 1 2.769846179547789 25.58819217700279 17.26196702025452 # PT
343 1 1.387274911363204 27.98729426071762 17.262701502783948 # PT
344 1 4.15496468850914 27.987049400139497 17.26202146608629 # PT
345 1 5.539994559690805 20.79038319463542 17.26203401426877 # PT
346 1 8.309999938167248 20.79038282244908 17.262034779861988 # PT
347 1 6.92499930029745 23.189273129021867 17.26203471262468 # PT
348 1 9.694999994447402 23.189273145730258 17.26203478465844 # PT
349 1 5.539994559690735 25.58816384552975 17.26203401427774 # PT
350 1 8.309999938167248 25.58816347334325 17.26203477987091 # PT
351 1 6.924999300297424 27.98705377926966 17.26203471272812 # PT
352 1 9.694999994447366 27.98705379597803 17.26203478476181 # PT
353 1 11.0799999997201 20.79038282039709 17.26203478518769 # PT
354 1 13.850000000005329 20.79038282036781 17.2620347852305 # PT
355 1 12.465000000029068 23.18927314579634 17.26203478522325 # PT
356 1 15.2350000000007 23.18927314579593 17.26203478523178 # PT
357 1 11.07999999972011 25.588163471291207 17.26203478519673 # PT
358 1 13.850000000005329 25.58816347126207 17.262034785239468 # PT
359 1 12.465000000029068 27.98705379604415 17.26203478532679 # PT
360 1 15.23500000000071 27.987053796043757 17.26203478533507 # PT
361 1 16.62 20.79038282036781 17.262034785231737 # PT
362 1 19.39 20.79038282036781 17.26203478523178 # PT
363 1 18.005 23.18927314579595 17.26203478523181 # PT
364 1 20.775 23.18927314579595 17.262034785231847 # PT
365 1 16.62 25.58816347126209 17.26203478524068 # PT
366 1 19.39 25.58816347126209 17.26203478524073 # PT
367 1 18.005 27.987053796043757 17.26203478533518 # PT
368 1 20.775 27.987053796043757 17.26203478533518 # PT
369 1 22.16 20.79038282036781 17.26203478523178 # PT
370 1 24.92999999999254 20.79038282036781 17.26203478522988 # PT
371 1 23.544999999998442 23.18927314579593 17.26203478523178 # PT
372 1 26.31499999997654 23.189273145797227 17.26203478521851 # PT
373 1 22.16 25.58816347126209 17.26203478524073 # PT
374 1 24.92999999999254 25.58816347126207 17.26203478523878 # PT
375 1 23.544999999998442 27.98705379604374 17.262034785335 # PT
376 1 26.31499999997656 27.987053796045018 17.26203478532191 # PT
377 1 27.70000000122613 20.79038282036996 17.26203478520796 # PT
378 1 30.470000186752618 20.79038281865761 17.26203479895509 # PT
379 1 29.085000015815208 23.18927314611637 17.262034786176 # PT
380 1 31.85500175484082 23.1892731912519 17.262034990584148 # PT
381 1 27.70000000122613 25.58816347126413 17.26203478521677 # PT
382 1 30.47000018675264 25.58816346955178 17.262034798964027 # PT
383 1 29.08500001581539 27.98705379636428 17.262034786279308 # PT
384 1 31.855001754840377 27.987053841498998 17.262034990687958 # PT
385 1 33.240007246295406 20.79038243977128 17.26203656630365 # PT
386 1 36.00802212534533 20.79035164511555 17.26210277743934 # PT
387 1 34.62507183103069 23.189276050644438 17.26204848280388 # PT
388 1 37.39203551924942 23.18903579689929 17.26139314537029 # PT
389 1 33.24000724629555 25.58816309066572 17.26203656631262 # PT
390 1 36.00802212534573 25.58813229601139 17.26210277744874 # PT
391 1 34.62507183102369 27.987056700865296 17.262048482903428 # PT
392 1 37.39203551915687 27.98681644690903 17.26139314547516 # PT
393 1 0.0033412343220766026 30.38597266354647 17.26202673578661 # PT
394 1 2.7698461804039987 30.38597270404253 17.261967002801068 # PT
395 1 1.387274980697169 32.78506792235733 17.2626998115756 # PT
396 1 4.154964695214563 32.78482318079069 17.262019793628 # PT
397 1 0.003341157380204979 35.18358672497386 17.26196858309126 # PT
398 1 2.769846714208847 35.18358735433584 17.26190884325784 # PT
399 1 1.3872949947473838 37.58465073485454 17.262821406842967 # PT
400 1 4.154965715261863 37.58441147991992 17.262133736524678 # PT
401 1 5.539994559807278 30.38594437390249 17.262033997076088 # PT
402 1 8.309999938166644 30.385944001861937 17.26203476272487 # PT
403 1 6.924999300607003 32.784827566657185 17.2620330406233 # PT
404 1 9.694999994444018 32.78482758363937 17.262033112683937 # PT
405 1 5.53999457555393 35.18355950519106 17.26197577032569 # PT
406 1 8.309999938380793 35.183559143117655 17.26197653411494 # PT
407 1 6.9249993169320785 37.584416532426076 17.26214700413853 # PT
408 1 9.694999994500542 37.584416560126435 17.262147077891658 # PT
409 1 11.079999999719979 30.38594399980939 17.26203476805036 # PT
410 1 13.850000000005329 30.38594399978028 17.262034768093258 # PT
411 1 12.46500000002886 32.78482758370222 17.26203311324798 # PT
412 1 15.2350000000007 32.78482758370179 17.26203311325637 # PT
413 1 11.07999999971392 35.18355914117664 17.26197653935509 # PT
414 1 13.85000000000521 35.18355914114399 17.26197653939594 # PT
415 1 12.46500000002601 37.584416560260614 17.26214707844594 # PT
416 1 15.235000000000658 37.584416560260195 17.26214707845377 # PT
417 1 16.62 30.385943999780302 17.26203476809441 # PT
418 1 19.39 30.385943999780302 17.26203476809441 # PT
419 1 18.005 32.78482758370179 17.26203311325645 # PT
420 1 20.775 32.78482758370179 17.26203311325645 # PT
421 1 16.62 35.18355914114399 17.261976539397118 # PT
422 1 19.39 35.18355914114399 17.261976539397118 # PT
423 1 18.005 37.584416560260195 17.26214707845388 # PT
424 1 20.775 37.584416560260195 17.26214707845388 # PT
425 1 22.16 30.385943999780302 17.26203476809441 # PT
426 1 24.929999999992557 30.38594399978031 17.26203476809246 # PT
427 1 23.544999999998456 32.78482758370179 17.26203311325621 # PT
428 1 26.31499999997689 32.784827583703496 17.26203311324317 # PT
429 1 22.16 35.18355914114399 17.261976539397118 # PT
430 1 24.92999999999291 35.18355914114403 17.26197653939521 # PT
431 1 23.544999999998577 37.584416560260195 17.26214707845372 # PT
432 1 26.314999999980227 37.58441656026094 17.26214707844116 # PT
433 1 27.70000000122633 30.385943999782107 17.262034768070468 # PT
434 1 30.47000018673873 30.38594399805558 17.26203478181439 # PT
435 1 29.085000015665198 32.78482758391549 17.2620331141978 # PT
436 1 31.85500175160883 32.78482762645074 17.262033317690328 # PT
437 1 27.700000001198596 35.183559141141565 17.26197653937535 # PT
438 1 30.47000018313612 35.1835591382146 17.26197655258417 # PT
439 1 29.085000014879476 37.58441656035438 17.262147079332248 # PT
440 1 31.85500163340243 37.58441658842188 17.26214726996513 # PT
441 1 33.24000724567244 30.38594361823816 17.26203654890687 # PT
442 1 36.00802212359772 30.3859128179272 17.26210275858715 # PT
443 1 34.62507176910931 32.78483039725424 17.26204677709604 # PT
444 1 37.39203538007705 32.784589555312216 17.26139130393873 # PT
445 1 33.24000700622441 35.18355861927866 17.26197824521202 # PT
446 1 36.00802068298721 35.18352567893396 17.2620428584107 # PT
447 1 34.62506734104712 37.58442034091236 17.26216071029522 # PT
448 1 37.39231309646358 37.5846890178595 17.2617309090096 # PT
449 1 0.0030960910849825115 38.580676551259536 19.523052624671386 # PT
450 1 2.769860146850088 38.58116888545963 19.523324939783176 # PT
451 1 1.387272614506691 2.3988246927685504 19.522806375596087 # PT
452 1 4.154966649873743 2.399060363051265 19.52346778132256 # PT
453 1 0.003338845610515092 4.797763359076336 19.52343425404738 # PT
454 1 2.769847941330533 4.797758349535026 19.5234675707224 # PT
455 1 1.3872711941156408 7.196434904270701 19.52275008741382 # PT
456 1 4.15496603627813 7.196674206442899 19.52341246884974 # PT
457 1 5.539994515870925 38.5811975502288 19.523270162714848 # PT
458 1 8.309999930780952 38.58119796742536 19.523268918565947 # PT
459 1 6.924999187694901 2.3990568397033893 19.523457050258276 # PT
460 1 9.694999993301048 2.3990567916299437 19.52345688454824 # PT
461 1 5.539994041967777 4.797787724068054 19.523403836665928 # PT
462 1 8.309999926352237 4.797788184130816 19.52340249019982 # PT
463 1 6.924999172920044 7.196671155434977 19.52340159589833 # PT
464 1 9.694999993201003 7.196671113605428 19.52340142781772 # PT
465 1 11.07999999971727 38.58119796941393 19.523268907118368 # PT
466 1 13.85000000000692 38.58119796944172 19.52326890711284 # PT
467 1 12.465000000036099 2.399056791335986 19.52345688367448 # PT
468 1 15.23500000000155 2.399056791336423 19.5234568836774 # PT
469 1 11.07999999971664 4.797788186467795 19.52340247832915 # PT
470 1 13.85000000000764 4.797788186496048 19.52340247832942 # PT
471 1 12.465000000038039 7.19667111332122 19.52340142693437 # PT
472 1 15.23500000000155 7.196671113320701 19.52340142693711 # PT
473 1 16.62 38.581197969442286 19.523268907114552 # PT
474 1 19.39 38.581197969442286 19.523268907114467 # PT
475 1 18.005 2.3990567913366627 19.5234568836791 # PT
476 1 20.775 2.3990567913367515 19.52345688367874 # PT
477 1 16.62000000000046 4.797788186496074 19.52340247833192 # PT
478 1 19.39 4.7977881864960965 19.5234024783331 # PT
479 1 18.005 7.196671113320496 19.523401426938737 # PT
480 1 20.775 7.196671113320514 19.52340142693942 # PT
481 1 22.16 38.581197969442286 19.5232689071143 # PT
482 1 24.929999999990187 38.581197969442165 19.52326890711419 # PT
483 1 23.544999999998158 2.3990567913367387 19.52345688367889 # PT
484 1 26.31499999995527 2.3990567913352057 19.52345688367546 # PT
485 1 22.16 4.797788186496216 19.52340247833315 # PT
486 1 24.92999999998904 4.797788186496088 19.52340247833288 # PT
487 1 23.544999999998026 7.196671113320572 19.523401426939667 # PT
488 1 26.314999999953496 7.196671113320132 19.523401426935717 # PT
489 1 27.70000000125505 38.58119796948432 19.523268907101947 # PT
490 1 30.47000018893449 38.58119797511093 19.52326889789872 # PT
491 1 29.085000015905592 2.399056791213726 19.52345688291529 # PT
492 1 31.85500181447893 2.399056752570211 19.523456729643787 # PT
493 1 27.70000000124464 4.797788186524336 19.523402478313 # PT
494 1 30.47000019236202 4.797788189608291 19.52340246804746 # PT
495 1 29.08500001614705 7.196671113046027 19.52340142623634 # PT
496 1 31.855001819392086 7.196671071822562 19.52340127232038 # PT
497 1 33.24000736462472 38.5811986766329 19.52326769773384 # PT
498 1 36.0080099488003 38.58123087415379 19.52320672713809 # PT
499 1 34.62507370092178 2.399053876387901 19.52344609205131 # PT
500 1 37.39203360580818 2.399290809435298 19.52410982611154 # PT
501 1 33.24000772476824 4.797788662027777 19.523401180154412 # PT
502 1 36.008023023892456 4.797818270657232 19.52333786406609 # PT
503 1 34.62507394560587 7.19666803095544 19.5233905759298 # PT
504 1 37.392033860155415 7.196906131299258 19.52405335060977 # PT
505 1 0.0033387573371778867 9.595535756229662 19.52343306459884 # PT
506 1 2.76984785697299 9.595531301364012 19.523466509212 # PT
507 1 1.3872711924668928 11.99421540976539 19.52275007731382 # PT
508 1 4.15496603538035 11.99445471854083 19.52341245951301 # PT
509 1 0.0033387572394211235 14.3933164063676 19.523433064559253 # PT
510 1 2.7698478569716243 14.39331195173363 19.52346650917461 # PT
511 1 1.387271192467602 16.791996060679267 19.522750077314537 # PT
512 1 4.154966035380817 16.79223536945249 19.52341245951427 # PT
513 1 5.539994033452251 9.59556083088128 19.52340277727029 # PT
514 1 8.309999925980357 9.595561299554255 19.523401429645677 # PT
515 1 6.924999172798697 11.99445166903365 19.523401586585877 # PT
516 1 9.69499999320215 11.99445162736379 19.52340141855899 # PT
517 1 5.539994033452717 14.393341481272548 19.52340277724299 # PT
518 1 8.309999925980668 14.3933419499454 19.523401429619227 # PT
519 1 6.924999172798764 16.792232319944638 19.5234015865875 # PT
520 1 9.694999993202025 16.79223227827444 19.523401418560088 # PT
521 1 11.079999999718869 9.595561302143695 19.52340141770439 # PT
522 1 13.85000000000753 9.595561302170003 19.523401417704477 # PT
523 1 12.465000000038 11.994451627079158 19.52340141767563 # PT
524 1 15.235000000001078 11.99445162707859 19.523401417676908 # PT
525 1 11.079999999718808 14.39334195253443 19.52340141767781 # PT
526 1 13.85000000000721 14.393341952560709 19.52340141767714 # PT
527 1 12.46500000003773 16.79223227798942 19.52340141767574 # PT
528 1 15.23500000000095 16.792232277989388 19.52340141767591 # PT
529 1 16.62 9.59556130216979 19.523401417705557 # PT
530 1 19.39 9.59556130216962 19.523401417706108 # PT
531 1 18.005 11.99445162707845 19.523401417676908 # PT
532 1 20.775 11.994451627078488 19.52340141767751 # PT
533 1 16.62 14.39334195256067 19.52340141767714 # PT
534 1 19.39 14.3933419525608 19.52340141767764 # PT
535 1 18.005 16.792232277989388 19.52340141767666 # PT
536 1 20.775 16.792232277989388 19.52340141767751 # PT
537 1 22.16 9.595561302169656 19.52340141770679 # PT
538 1 24.929999999988862 9.595561302169719 19.52340141770655 # PT
539 1 23.54499999999812 11.994451627078428 19.52340141767794 # PT
540 1 26.31499999995341 11.994451627078199 19.523401417674396 # PT
541 1 22.16 14.39334195256087 19.52340141767805 # PT
542 1 24.92999999998902 14.39334195256094 19.523401417678098 # PT